 vasp.6.5.1 10Mar25 (build Oct 08 2025 23:07:00) complex                        
  
 executed on             LinuxIFC date 2025.10.31  23:12:29
 running   48 mpi-ranks, on    1 nodes
 distrk:  each k-point on   48 cores,    1 groups
 distr:  one band on NCORE=   1 cores,   48 groups


--------------------------------------------------------------------------------------------------------


 INCAR:
   PREC = Accurate
   ENCUT = 500
   EDIFF = 1e-6
   ISMEAR = 0
   SIGMA = 0.01
   LREAL = .FALSE.
   LWANNIER90 = .TRUE.
   LWRITE_MMN_AMN = .TRUE.
   LSCDM = .TRUE.
   LWAVE = .FALSE.
   LCHARG = .FALSE.
   ISYM = 0
   ELPH_RUN = .TRUE.
   ELPH_DRIVER = MELS
   ALGO = Normal
   NCORE = 1
   ELPH_NBANDS = 96
   KPOINTS_OPT_MODE = 2
   ELPH_SELFEN_BAND_START = 1
   ELPH_SELFEN_BAND_STOP = 96
   NGX = 28
   NGY = 28
   NGZ = 28

 POTCAR:    PAW_PBE Si 05Jan2001                  
 -----------------------------------------------------------------------------
|                                                                             |
|           W    W    AA    RRRRR   N    N  II  N    N   GGGG   !!!           |
|           W    W   A  A   R    R  NN   N  II  NN   N  G    G  !!!           |
|           W    W  A    A  R    R  N N  N  II  N N  N  G       !!!           |
|           W WW W  AAAAAA  RRRRR   N  N N  II  N  N N  G  GGG   !            |
|           WW  WW  A    A  R   R   N   NN  II  N   NN  G    G                |
|           W    W  A    A  R    R  N    N  II  N    N   GGGG   !!!           |
|                                                                             |
|     For optimal performance we recommend to set                             |
|       NCORE = 2 up to number-of-cores-per-socket                            |
|     NCORE specifies how many cores store one orbital (NPAR=cpu/NCORE).      |
|     This setting can greatly improve the performance of VASP for DFT.       |
|     The default, NCORE=1 might be grossly inefficient on modern             |
|     multi-core architectures or massively parallel machines. Do your        |
|     own testing! More info at https://www.vasp.at/wiki/index.php/NCORE      |
|     Unfortunately you need to use the default for GW and RPA                |
|     calculations (for HF NCORE is supported but not extensively tested      |
|     yet).                                                                   |
|                                                                             |
 -----------------------------------------------------------------------------

 POTCAR:    PAW_PBE Si 05Jan2001                  
   SHA256 =  79d9987ad8750f624c4d6acb2a16d13abf6a777132adc04dc6c8399be72b42bb Si/POTCAR             
   COPYR  = (c) Copyright 05Jan2001 Georg Kresse                                                    
   COPYR  = This file is part of the software VASP. Any use, copying, and all other rights are regul
   COPYR  = If you do not have a valid VASP license, you may not use, copy or distribute this file. 
   VRHFIN =Si: s2p2                                                                                 
   LEXCH  = PE                                                                                      
   EATOM  =   103.0669 eV,    7.5752 Ry                                                             
                                                                                                    
   TITEL  = PAW_PBE Si 05Jan2001                                                                    
   LULTRA =        F    use ultrasoft PP ?                                                          
   IUNSCR =        1    unscreen: 0-lin 1-nonlin 2-no                                               
   RPACOR =    1.500    partial core radius                                                         
   POMASS =   28.085; ZVAL   =    4.000    mass and valenz                                          
   RCORE  =    1.900    outmost cutoff radius                                                       
   RWIGS  =    2.480; RWIGS  =    1.312    wigner-seitz radius (au A)                               
   ENMAX  =  245.345; ENMIN  =  184.009 eV                                                          
   ICORE  =        2    local potential                                                             
   LCOR   =        T    correct aug charges                                                         
   LPAW   =        T    paw PP                                                                      
   EAUG   =  322.069                                                                                
   DEXC   =    0.000                                                                                
   RMAX   =    1.950    core radius for proj-oper                                                   
   RAUG   =    1.300    factor for augmentation sphere                                              
   RDEP   =    1.993    radius for radial grids                                                     
   RDEPT  =    1.837    core radius for aug-charge                                                  
                                                                                                    
   Atomic configuration                                                                             
    6 entries                                                                                       
     n  l   j            E        occ.                                                              
     1  0  0.50     -1785.8828   2.0000                                                             
     2  0  0.50      -139.4969   2.0000                                                             
     2  1  1.50       -95.5546   6.0000                                                             
     3  0  0.50       -10.8127   2.0000                                                             
     3  1  0.50        -4.0811   2.0000                                                             
     3  2  1.50        -4.0817   0.0000                                                             
   Description                                                                                      
     l       E           TYP  RCUT    TYP  RCUT                                                     
     0    -10.8127223     23  1.900                                                                 
     0     -7.6451159     23  1.900                                                                 
     1     -4.0811372     23  1.900                                                                 
     1      2.4879257     23  1.900                                                                 
     2     -4.0817478      7  1.900                                                                 
  local pseudopotential read in
  partial core-charges read in
  partial kinetic energy density read in
  atomic valenz-charges read in
  non local Contribution for L=           0  read in
    real space projection operators read in
  non local Contribution for L=           0  read in
    real space projection operators read in
  non local Contribution for L=           1  read in
    real space projection operators read in
  non local Contribution for L=           1  read in
    real space projection operators read in
    PAW grid and wavefunctions read in
 
   number of l-projection  operators is LMAX  =           4
   number of lm-projection operators is LMMAX =           8
 
  PAW_PBE Si 05Jan2001                  :
 energy of atom  1       EATOM= -103.0669
 kinetic energy error for atom=    0.0006 (will be added to EATOM!!)
 
 
 POSCAR: unknown system
  positions in direct lattice
  No initial velocities read in


 exchange-correlation table for PE
   RHO(1)=    0.500       N(1)  =     2000
   RHO(2)=  100.500       N(2)  =     4000
 


--------------------------------------------------------------------------------------------------------


 ion  position               nearest neighbor table
   1  0.875  0.875  0.875-   2 2.37   2 2.37   2 2.37   2 2.37
   2  0.125  0.125  0.125-   1 2.37   1 2.37   1 2.37   1 2.37
 

IMPORTANT INFORMATION: All symmetrisations will be switched off!
NOSYMM: (Re-)initialisation of all symmetry stuff for point group C_1.


----------------------------------------------------------------------------------------

                                     Primitive cell                                     

  volume of cell :      40.8720

  direct lattice vectors                    reciprocal lattice vectors
     0.000000000  2.734000000  2.734000000    -0.182882224  0.182882224  0.182882224
     2.734000000  0.000000000  2.734000000     0.182882224 -0.182882224  0.182882224
     2.734000000  2.734000000  0.000000000     0.182882224  0.182882224 -0.182882224

  length of vectors
     3.866459880  3.866459880  3.866459880     0.316761304  0.316761304  0.316761304

  position of ions in fractional coordinates (direct lattice)
     0.875000000  0.875000000  0.875000000
     0.125000000  0.125000000  0.125000000

  ion indices of the primitive-cell ions
   primitive index   ion index
                 1           1
                 2           2

----------------------------------------------------------------------------------------

 
 
 KPOINTS: K-Points                                

Automatic generation of k-mesh.
 Grid dimensions read from file:
 generate k-points for:    3    3    3

 Generating k-lattice:

  Cartesian coordinates                     Fractional coordinates (reciprocal lattice)
    -0.060960741  0.060960741  0.060960741     0.333333333  0.000000000  0.000000000
     0.060960741 -0.060960741  0.060960741     0.000000000  0.333333333  0.000000000
     0.060960741  0.060960741 -0.060960741     0.000000000  0.000000000  0.333333333

  Length of vectors
     0.105587101  0.105587101  0.105587101

  Shift w.r.t. Gamma in fractional coordinates (k-lattice)
     0.000000000  0.000000000  0.000000000

 
 Subroutine IBZKPT returns following result:
 ===========================================
 
 Found     14 irreducible k-points:
 
 Following reciprocal coordinates:
            Coordinates               Weight
  0.000000  0.000000  0.000000      1.000000
  0.333333  0.000000  0.000000      2.000000
  0.000000  0.333333  0.000000      2.000000
  0.000000  0.000000  0.333333      2.000000
  0.333333  0.333333  0.333333      2.000000
  0.333333  0.333333  0.000000      2.000000
  0.000000  0.333333  0.333333      2.000000
  0.333333  0.000000  0.333333      2.000000
 -0.333333  0.333333  0.000000      2.000000
  0.000000 -0.333333  0.333333      2.000000
  0.333333  0.000000 -0.333333      2.000000
  0.333333  0.333333 -0.333333      2.000000
 -0.333333  0.333333 -0.333333      2.000000
  0.333333 -0.333333 -0.333333      2.000000
 
 Following cartesian coordinates:
            Coordinates               Weight
  0.000000  0.000000  0.000000      1.000000
 -0.060961  0.060961  0.060961      2.000000
  0.060961 -0.060961  0.060961      2.000000
  0.060961  0.060961 -0.060961      2.000000
  0.060961  0.060961  0.060961      2.000000
  0.000000  0.000000  0.121921      2.000000
  0.121921  0.000000  0.000000      2.000000
  0.000000  0.121921  0.000000      2.000000
  0.121921 -0.121921  0.000000      2.000000
  0.000000  0.121921 -0.121921      2.000000
 -0.121921  0.000000  0.121921      2.000000
 -0.060961 -0.060961  0.182882      2.000000
  0.060961 -0.182882  0.060961      2.000000
 -0.182882  0.060961  0.060961      2.000000
 
 
 Subroutine IBZKPT_HF returns following result:
 ==============================================
 
 Found     27 k-points in 1st BZ
 the following     27 k-points will be used (e.g. in the exchange kernel)
 Following reciprocal coordinates:   # in IRBZ
  0.000000  0.000000  0.000000    0.03703704   1 t-inv F
  0.333333  0.000000  0.000000    0.03703704   2 t-inv F
  0.000000  0.333333  0.000000    0.03703704   3 t-inv F
  0.000000  0.000000  0.333333    0.03703704   4 t-inv F
  0.333333  0.333333  0.333333    0.03703704   5 t-inv F
  0.333333  0.333333  0.000000    0.03703704   6 t-inv F
  0.000000  0.333333  0.333333    0.03703704   7 t-inv F
  0.333333  0.000000  0.333333    0.03703704   8 t-inv F
 -0.333333  0.333333  0.000000    0.03703704   9 t-inv F
  0.000000 -0.333333  0.333333    0.03703704  10 t-inv F
  0.333333  0.000000 -0.333333    0.03703704  11 t-inv F
  0.333333  0.333333 -0.333333    0.03703704  12 t-inv F
 -0.333333  0.333333 -0.333333    0.03703704  13 t-inv F
  0.333333 -0.333333 -0.333333    0.03703704  14 t-inv F
 -0.333333  0.000000  0.000000    0.03703704   2 t-inv T
  0.000000 -0.333333  0.000000    0.03703704   3 t-inv T
  0.000000  0.000000 -0.333333    0.03703704   4 t-inv T
 -0.333333 -0.333333 -0.333333    0.03703704   5 t-inv T
 -0.333333 -0.333333  0.000000    0.03703704   6 t-inv T
  0.000000 -0.333333 -0.333333    0.03703704   7 t-inv T
 -0.333333  0.000000 -0.333333    0.03703704   8 t-inv T
  0.333333 -0.333333  0.000000    0.03703704   9 t-inv T
  0.000000  0.333333 -0.333333    0.03703704  10 t-inv T
 -0.333333  0.000000  0.333333    0.03703704  11 t-inv T
 -0.333333 -0.333333  0.333333    0.03703704  12 t-inv T
  0.333333 -0.333333  0.333333    0.03703704  13 t-inv T
 -0.333333  0.333333  0.333333    0.03703704  14 t-inv T


--------------------------------------------------------------------------------------------------------




 Dimension of arrays:
   k-points           NKPTS =     14   k-points in BZ     NKDIM =     14   number of bands    NBANDS=     48
   number of dos      NEDOS =    301   number of ions     NIONS =      2
   non local maximal  LDIM  =      4   non local SUM 2l+1 LMDIM =      8
   total plane-waves  NPLWV =  21952
   max r-space proj   IRMAX =      1   max aug-charges    IRDMAX=  18155
   dimension x,y,z NGX =    28 NGY =   28 NGZ =   28
   dimension x,y,z NGXF=    56 NGYF=   56 NGZF=   56
   support grid    NGXF=    56 NGYF=   56 NGZF=   56
   ions per type =               2
   NGX,Y,Z   is equivalent  to a cutoff of  12.04, 12.04, 12.04 a.u.
   NGXF,Y,Z  is equivalent  to a cutoff of  24.08, 24.08, 24.08 a.u.

 SYSTEM =  unknown system                          
 POSCAR =  unknown system                          

 Startparameter for this run:
   NWRITE =      2    write-flag & timer
   PREC   = accura    normal or accurate (medium, high low for compatibility)
   ISTART =      0    job   : 0-new  1-cont  2-samecut
   ICHARG =      2    charge: 1-file 2-atom 10-const
   ISPIN  =      1    spin polarized calculation?
   LNONCOLLINEAR =      F non collinear calculations
   LSORBIT =      F    spin-orbit coupling
   INIWAV =      1    electr: 0-lowe 1-rand  2-diag
   LASPH  =      F    aspherical Exc in radial PAW
 Electronic Relaxation 1
   ENCUT  =  500.0 eV  36.75 Ry    6.06 a.u.   7.05  7.05  7.05*2*pi/ulx,y,z
   ENINI  =  500.0     initial cutoff
   ENAUG  =  322.1 eV  augmentation charge cutoff
   NELM   =     60;   NELMIN=  2; NELMDL=  0     # of ELM steps 
   EDIFF  = 0.1E-05   stopping-criterion for ELM
   LREAL  =      F    real-space projection
   NLSPLINE    = F    spline interpolate recip. space projectors
   LCOMPAT=      F    compatible to vasp.4.4
   GGA_COMPAT  = T    GGA compatible to vasp.4.4-vasp.4.6
   LMAXPAW     = -100 max onsite density
   LMAXMIX     =    2 max onsite mixed and CHGCAR
   VOSKOWN=      0    Vosko Wilk Nusair interpolation
   ROPT   =    0.00000
 Ionic relaxation
   EDIFFG = 0.1E-04   stopping-criterion for IOM
   NSW    =      0    number of steps for IOM
   NBLOCK =      1;   KBLOCK =      1    inner block; outer block 
   IBRION =     -1    ionic relax: 0-MD 1-quasi-New 2-CG
   NFREE  =      0    steps in history (QN), initial steepest desc. (CG)
   ISIF   =      2    stress and relaxation
   IWAVPR =     10    prediction:  0-non 1-charg 2-wave 3-comb
   ISYM   =      0    0-nonsym 1-usesym 2-fastsym
   LCORR  =      T    Harris-Foulkes like correction to forces

   POTIM  = 0.5000    time-step for ionic-motion
   TEIN   =    0.0    initial temperature
   TEBEG  =    0.0;   TEEND  =   0.0 temperature during run
   SMASS  =  -3.00    Nose mass-parameter (am)
   estimated Nose-frequenzy (Omega)   =  0.10E-29 period in steps = 0.13E+47 mass=  -0.342E-27a.u.
   SCALEE = 1.0000    scale energy and forces
   NPACO  =    256;   APACO  = 10.0  distance and # of slots for P.C.
   PSTRESS=    0.0 pullay stress

  Mass of Ions in am
   POMASS =  28.09
  Ionic Valenz
   ZVAL   =   4.00
  Atomic Wigner-Seitz radii
   RWIGS  =  -1.00
  virtual crystal weights 
   VCA    =   1.00
   NELECT =       8.0000    total number of electrons
   NUPDOWN=      -1.0000    fix difference up-down

 DOS related values:
   EMIN   =  10.00;   EMAX   =-10.00  energy-range for DOS
   EFERMI =   0.00;   METHOD = LEGACY      
   ISMEAR =     0;   SIGMA  =   0.01  broadening in eV -4-tet -1-fermi 0-gaus
   EFERMI_NEDOS =   21; number of points for ismear=-14 and -15

 Electronic relaxation 2 (details)
   IALGO  =     38    algorithm
   LDIAG  =      T    sub-space diagonalisation (order eigenvalues)
   LSUBROT=      F    optimize rotation matrix (better conditioning)
   LROBUST=      F    robust break criterion during scf (extrapolated energy error)
   ISEARCH=      0    line search for conjugate gradient (0, 1=use gradient)
   TURBO    =      0    0=normal 1=particle mesh
   IRESTART =      0    0=no restart 2=restart with 2 vectors
   NREBOOT  =      0    no. of reboots
   NMIN     =      0    reboot dimension
   EREF     =   0.00    reference energy to select bands
   IMIX   =      4    mixing-type and parameters
     AMIX     =   0.40;   BMIX     =  1.00
     AMIX_MAG =   1.60;   BMIX_MAG =  1.00
     AMIN     =   0.10
     WC   =   100.;   INIMIX=   1;  MIXPRE=   1;  MAXMIX= -45

 Intra band minimization:
   WEIMIN = 0.0000     energy-eigenvalue tresh-hold
   EBREAK =  0.52E-08  absolut break condition
   DEPER  =   0.30     relativ break condition  

   TIME   =   0.40     timestep for ELM

  volume/ion in A,a.u.               =      20.44       137.91
  Fermi-wavevector in a.u.,A,eV,Ry     =   0.950524  1.796229 12.292802  0.903495
  Thomas-Fermi vector in A             =   2.078909
 
 Write flags
   LWAVE        =      F    write WAVECAR
   LDOWNSAMPLE  =      F    k-point downsampling of WAVECAR
   LCHARG       =      F    write CHGCAR
   LVTOT        =      F    write LOCPOT, total local potential
   LVHAR        =      F    write LOCPOT, Hartree potential only
   WRT_POTENTIAL= false  ! write potential to hdf5 file
   LELF         =      F    write electronic localiz. function (ELF)
   LORBIT       =      0    0 simple, 1 ext, 2 COOP (PROOUT), +10 PAW based schemes


 Python interface
   PLUGINS active      =      F    recompile with -DPLUGINS to activate
 
 Dipole corrections
   LMONO      =      F    monopole corrections only (constant potential shift)
   LDIPOL     =      F    correct potential (dipole corrections)
   IDIPOL     =      0    1-x, 2-y, 3-z, 4-all directions 
   EPSILON    =  1.0000000 bulk dielectric constant
   LVACPOTAV  =      F  vacuum potentials using an averaging scheme for the charge density
   VACPOTFLAT =  0.1000000 required flatness to determine vacuum potential
 
Coulomb truncation method
  LTRUNCATE          =      F  Coulomb kernel truncation to be used

 
 Exchange correlation treatment:
   GGA     = PE    functional components
   XC_C    = 1    coefficients multiplying the functional components
   LIBXC   =     F    Libxc                    
   VOSKOWN =     0    Vosko Wilk Nusair interpolation
   LHFCALC =     F    Hartree Fock is set to
   LHFONE  =     F    Hartree Fock one center treatment
   AEXX    =    0.0000 exact exchange contribution

 Parameters of functionals:
   PE:
     No parameter
 
 Van der Waals corrections
   IVDW    =     0    specifies the selected vdW correction

 Linear response parameters
   LEPSILON=     F    determine dielectric tensor
   LRPA    =     F    only Hartree local field effects (RPA)
   LNABLA  =     F    use nabla operator in PAW spheres
   LVEL    =     F    velocity operator in full k-point grid
   CSHIFT  =0.1000    complex shift for real part using Kramers Kronig
   OMEGAMAX=  -1.0    maximum frequency
   DEG_THRESHOLD= 0.2000000E-02 threshold for treating states as degnerate
   RTIME   =   -0.100 relaxation time in fs
  (WPLASMAI=    0.000 imaginary part of plasma frequency in eV, 0.658/RTIME)
   DFIELD  = 0.0000000 0.0000000 0.0000000 field for delta impulse in time
 
  Optional k-point grid parameters
   LKPOINTS_OPT  =     F    use optional k-point grid
   KPOINTS_OPT_MODE=     2    mode for optional k-point grid
 
 Orbital magnetization related:
   ORBITALMAG=     F  switch on orbital magnetization
   LCHIMAG   =     F  perturbation theory with respect to B field
   DQ        =  0.001000  dq finite difference perturbation B field
   LLRAUG    =     F  two centre corrections for induced B field
   LBONE     =     F  B-component reconstruction in AE one-centre
   LVGVCALC  =     T  calculate vGv susceptibility
   LVGVAPPL  =     F  apply vGv susceptibility instead of pGv for G=0

 Random number generation:
   RANDOM_GENERATOR = DEFAULT
   PCG_SEED         = not used


--------------------------------------------------------------------------------------------------------


 Static calculation
 charge density and potential will be updated during run
 non-spin polarized calculation
 Variant of blocked Davidson
 Davidson routine will perform the subspace rotation
 perform sub-space diagonalisation
    after iterative eigenvector-optimisation
 modified Broyden-mixing scheme, WC =      100.0
 initial mixing is a Kerker type mixing with AMIX =  0.4000 and BMIX =      1.0000
 Hartree-type preconditioning will be used
 using additional bands           44
 reciprocal scheme for non local part
 use partial core corrections
 calculate Harris-corrections to forces 
   (improved forces if not selfconsistent)
 use gradient corrections 
 use of overlap-Matrix (Vanderbilt PP)
 Gauss-broadening in eV      SIGMA  =   0.01


--------------------------------------------------------------------------------------------------------


  energy-cutoff  :      500.00
  volume of cell :       40.87
      direct lattice vectors                 reciprocal lattice vectors
     0.000000000  2.734000000  2.734000000    -0.182882224  0.182882224  0.182882224
     2.734000000  0.000000000  2.734000000     0.182882224 -0.182882224  0.182882224
     2.734000000  2.734000000  0.000000000     0.182882224  0.182882224 -0.182882224

  length of vectors
     3.866459880  3.866459880  3.866459880     0.316761304  0.316761304  0.316761304


 
 k-points in units of 2pi/SCALE and weight: K-Points                                
   0.00000000  0.00000000  0.00000000       0.037
  -0.06096074  0.06096074  0.06096074       0.074
   0.06096074 -0.06096074  0.06096074       0.074
   0.06096074  0.06096074 -0.06096074       0.074
   0.06096074  0.06096074  0.06096074       0.074
   0.00000000  0.00000000  0.12192148       0.074
   0.12192148  0.00000000  0.00000000       0.074
   0.00000000  0.12192148  0.00000000       0.074
   0.12192148 -0.12192148  0.00000000       0.074
   0.00000000  0.12192148 -0.12192148       0.074
  -0.12192148  0.00000000  0.12192148       0.074
  -0.06096074 -0.06096074  0.18288222       0.074
   0.06096074 -0.18288222  0.06096074       0.074
  -0.18288222  0.06096074  0.06096074       0.074
 
 k-points in reciprocal lattice and weights: K-Points                                
   0.00000000  0.00000000  0.00000000       0.037
   0.33333333  0.00000000  0.00000000       0.074
   0.00000000  0.33333333  0.00000000       0.074
   0.00000000  0.00000000  0.33333333       0.074
   0.33333333  0.33333333  0.33333333       0.074
   0.33333333  0.33333333  0.00000000       0.074
   0.00000000  0.33333333  0.33333333       0.074
   0.33333333  0.00000000  0.33333333       0.074
  -0.33333333  0.33333333  0.00000000       0.074
   0.00000000 -0.33333333  0.33333333       0.074
   0.33333333  0.00000000 -0.33333333       0.074
   0.33333333  0.33333333 -0.33333333       0.074
  -0.33333333  0.33333333 -0.33333333       0.074
   0.33333333 -0.33333333 -0.33333333       0.074
 
 position of ions in fractional coordinates (direct lattice) 
   0.87500000  0.87500000  0.87500000
   0.12500000  0.12500000  0.12500000
 
 position of ions in cartesian coordinates  (Angst):
   4.78450000  4.78450000  4.78450000
   0.68350000  0.68350000  0.68350000
 


--------------------------------------------------------------------------------------------------------


 k-point     1 :   0.0000 0.0000 0.0000  plane waves:    1037
 k-point     2 :   0.3333 0.0000 0.0000  plane waves:    1044
 k-point     3 :   0.0000 0.3333 0.0000  plane waves:    1044
 k-point     4 :   0.0000 0.0000 0.3333  plane waves:    1044
 k-point     5 :   0.3333 0.3333 0.3333  plane waves:    1044
 k-point     6 :   0.3333 0.3333 0.0000  plane waves:    1030
 k-point     7 :   0.0000 0.3333 0.3333  plane waves:    1030
 k-point     8 :   0.3333 0.0000 0.3333  plane waves:    1030
 k-point     9 :  -0.3333 0.3333 0.0000  plane waves:    1031
 k-point    10 :   0.0000-0.3333 0.3333  plane waves:    1031
 k-point    11 :   0.3333 0.0000-0.3333  plane waves:    1031
 k-point    12 :   0.3333 0.3333-0.3333  plane waves:    1031
 k-point    13 :  -0.3333 0.3333-0.3333  plane waves:    1031
 k-point    14 :   0.3333-0.3333-0.3333  plane waves:    1031

 maximum and minimum number of plane-waves per node :      1044     1030

 maximum number of plane-waves:      1044
 maximum index in each direction: 
   IXMAX=    7   IYMAX=    7   IZMAX=    7
   IXMIN=   -7   IYMIN=   -7   IZMIN=   -7


 serial   3D FFT for wavefunctions
 parallel 3D FFT for charge:
    minimum data exchange during FFTs selected (reduces bandwidth)


 total amount of memory used by VASP MPI-rank0    32722. kBytes
=======================================================================

   base                                    :      30000. kBytes
   nonl-proj                               :        979. kBytes
   fftplans                                :        292. kBytes
   grid                                    :       1198. kBytes
   one-center                              :          6. kBytes
   wavefun                                 :        247. kBytes
 
     INWAV:  cpu time      0.0000: real time      0.0002
 Broyden mixing: mesh for mixing (old mesh)
   NGX = 15   NGY = 15   NGZ = 15
  (NGX  = 56   NGY  = 56   NGZ  = 56)
  gives a total of   3375 points

 initial charge density was supplied:
 charge density of overlapping atoms calculated
 number of electron       8.0000000 magnetization 
 keeping initial charge density in first step


--------------------------------------------------------------------------------------------------------


 Maximum index for augmentation-charges         1371 (set IRDMAX)


--------------------------------------------------------------------------------------------------------


 First call to EWALD:  gamma=   0.515
 Maximum number of real-space cells   3x   3x   3
 Maximum number of reciprocal cells   3x   3x   3

    FEWALD:  cpu time      0.0015: real time      0.0017


--------------------------------------- Ionic step        1  -------------------------------------------




--------------------------------------- Iteration      1(   1)  ---------------------------------------


    POTLOK:  cpu time      0.0079: real time      0.0144
    SETDIJ:  cpu time      0.0022: real time      0.0027
     EDDAV:  cpu time      0.1946: real time      0.1966
       DOS:  cpu time      0.0036: real time      0.0042
    --------------------------------------------
      LOOP:  cpu time      0.2087: real time      0.2183

 eigenvalue-minimisations  :  1344
 total energy-change (2. order) :-0.6715200E+01  (-0.3481909E+03)
 number of electron       8.0000000 magnetization 
 augmentation part        8.0000000 magnetization 

 Free energy of the ion-electron system (eV)
  ---------------------------------------------------
  alpha Z        PSCENC =         3.29449589
  Ewald energy   TEWEN  =      -226.97511711
  -Hartree energ DENC   =       -11.31730864
  -exchange      EXHF   =         0.00000000
  -V(xc)+E(xc)   XCENC  =       -18.68362907
  PAW double counting   =       176.24759923     -141.06103558
  entropy T*S    EENTRO =         0.00000000
  eigenvalues    EBANDS =         5.64728152
  atomic energy  EATOM  =       206.13251344
  Solvation  Ediel_sol  =         0.00000000
  ---------------------------------------------------
  free energy    TOTEN  =        -6.71520032 eV

  energy without entropy =       -6.71520032  energy(sigma->0) =       -6.71520032


--------------------------------------------------------------------------------------------------------




--------------------------------------- Iteration      1(   2)  ---------------------------------------


     EDDAV:  cpu time      0.3455: real time      0.3478
       DOS:  cpu time      0.0031: real time      0.0031
    --------------------------------------------
      LOOP:  cpu time      0.3486: real time      0.3509

 eigenvalue-minimisations  :  2016
 total energy-change (2. order) :-0.3749164E+01  (-0.3749164E+01)
 number of electron       8.0000000 magnetization 
 augmentation part        8.0000000 magnetization 

 Free energy of the ion-electron system (eV)
  ---------------------------------------------------
  alpha Z        PSCENC =         3.29449589
  Ewald energy   TEWEN  =      -226.97511711
  -Hartree energ DENC   =       -11.31730864
  -exchange      EXHF   =         0.00000000
  -V(xc)+E(xc)   XCENC  =       -18.68362907
  PAW double counting   =       176.24759923     -141.06103558
  entropy T*S    EENTRO =        -0.00000000
  eigenvalues    EBANDS =         1.89811797
  atomic energy  EATOM  =       206.13251344
  Solvation  Ediel_sol  =         0.00000000
  ---------------------------------------------------
  free energy    TOTEN  =       -10.46436387 eV

  energy without entropy =      -10.46436387  energy(sigma->0) =      -10.46436387


--------------------------------------------------------------------------------------------------------




--------------------------------------- Iteration      1(   3)  ---------------------------------------


     EDDAV:  cpu time      0.1803: real time      0.1816
       DOS:  cpu time      0.0031: real time      0.0031
    --------------------------------------------
      LOOP:  cpu time      0.1833: real time      0.1846

 eigenvalue-minimisations  :  1344
 total energy-change (2. order) :-0.1720340E-02  (-0.1720340E-02)
 number of electron       8.0000000 magnetization 
 augmentation part        8.0000000 magnetization 

 Free energy of the ion-electron system (eV)
  ---------------------------------------------------
  alpha Z        PSCENC =         3.29449589
  Ewald energy   TEWEN  =      -226.97511711
  -Hartree energ DENC   =       -11.31730864
  -exchange      EXHF   =         0.00000000
  -V(xc)+E(xc)   XCENC  =       -18.68362907
  PAW double counting   =       176.24759923     -141.06103558
  entropy T*S    EENTRO =        -0.00000000
  eigenvalues    EBANDS =         1.89639763
  atomic energy  EATOM  =       206.13251344
  Solvation  Ediel_sol  =         0.00000000
  ---------------------------------------------------
  free energy    TOTEN  =       -10.46608421 eV

  energy without entropy =      -10.46608421  energy(sigma->0) =      -10.46608421


--------------------------------------------------------------------------------------------------------




--------------------------------------- Iteration      1(   4)  ---------------------------------------


     EDDAV:  cpu time      0.6031: real time      0.6069
       DOS:  cpu time      0.0002: real time      0.0002
    --------------------------------------------
      LOOP:  cpu time      0.6033: real time      0.6071

 eigenvalue-minimisations  :  2688
 total energy-change (2. order) :-0.5446238E-06  (-0.5446237E-06)
 number of electron       8.0000000 magnetization 
 augmentation part        8.0000000 magnetization 

 Free energy of the ion-electron system (eV)
  ---------------------------------------------------
  alpha Z        PSCENC =         3.29449589
  Ewald energy   TEWEN  =      -226.97511711
  -Hartree energ DENC   =       -11.31730864
  -exchange      EXHF   =         0.00000000
  -V(xc)+E(xc)   XCENC  =       -18.68362907
  PAW double counting   =       176.24759923     -141.06103558
  entropy T*S    EENTRO =        -0.00000000
  eigenvalues    EBANDS =         1.89639708
  atomic energy  EATOM  =       206.13251344
  Solvation  Ediel_sol  =         0.00000000
  ---------------------------------------------------
  free energy    TOTEN  =       -10.46608476 eV

  energy without entropy =      -10.46608476  energy(sigma->0) =      -10.46608476


--------------------------------------------------------------------------------------------------------




--------------------------------------- Iteration      1(   5)  ---------------------------------------


     EDDAV:  cpu time      0.1864: real time      0.1901
       DOS:  cpu time      0.0002: real time      0.0002
    CHARGE:  cpu time      0.0052: real time      0.0054
    MIXING:  cpu time      0.0012: real time      0.0016
    --------------------------------------------
      LOOP:  cpu time      0.1928: real time      0.1971

 eigenvalue-minimisations  :  1344
 total energy-change (2. order) :-0.9663381E-12  (-0.1473677E-12)
 number of electron       8.0000000 magnetization 
 augmentation part       -0.4593915 magnetization 

 Broyden mixing:
  rms(total) = 0.49887E+00    rms(broyden)= 0.49887E+00
  rms(prec ) = 0.10378E+01
  weight for this iteration     100.00

 Free energy of the ion-electron system (eV)
  ---------------------------------------------------
  alpha Z        PSCENC =         3.29449589
  Ewald energy   TEWEN  =      -226.97511711
  -Hartree energ DENC   =       -11.31730864
  -exchange      EXHF   =         0.00000000
  -V(xc)+E(xc)   XCENC  =       -18.68362907
  PAW double counting   =       176.24759923     -141.06103558
  entropy T*S    EENTRO =        -0.00000000
  eigenvalues    EBANDS =         1.89639708
  atomic energy  EATOM  =       206.13251344
  Solvation  Ediel_sol  =         0.00000000
  ---------------------------------------------------
  free energy    TOTEN  =       -10.46608476 eV

  energy without entropy =      -10.46608476  energy(sigma->0) =      -10.46608476


--------------------------------------------------------------------------------------------------------




--------------------------------------- Iteration      1(   6)  ---------------------------------------


    POTLOK:  cpu time      0.0045: real time      0.0045
    SETDIJ:  cpu time      0.0011: real time      0.0011
     EDDAV:  cpu time      0.3059: real time      0.3080
       DOS:  cpu time      0.0002: real time      0.0002
    CHARGE:  cpu time      0.0042: real time      0.0043
    MIXING:  cpu time      0.0006: real time      0.0007
    --------------------------------------------
      LOOP:  cpu time      0.3165: real time      0.3187

 eigenvalue-minimisations  :  1872
 total energy-change (2. order) : 0.1565602E+00  (-0.9911039E-02)
 number of electron       8.0000000 magnetization 
 augmentation part       -0.4523548 magnetization 

 Broyden mixing:
  rms(total) = 0.30815E+00    rms(broyden)= 0.30815E+00
  rms(prec ) = 0.62115E+00
  weight for this iteration     100.00

 eigenvalues of (default mixing * dielectric matrix)
  average eigenvalue GAMMA=   2.6002
  2.6002

 Free energy of the ion-electron system (eV)
  ---------------------------------------------------
  alpha Z        PSCENC =         3.29449589
  Ewald energy   TEWEN  =      -226.97511711
  -Hartree energ DENC   =       -13.04202095
  -exchange      EXHF   =         0.00000000
  -V(xc)+E(xc)   XCENC  =       -18.42265605
  PAW double counting   =       375.43602709     -340.36289653
  entropy T*S    EENTRO =        -0.00000000
  eigenvalues    EBANDS =         3.63012966
  atomic energy  EATOM  =       206.13251344
  Solvation  Ediel_sol  =         0.00000000
  ---------------------------------------------------
  free energy    TOTEN  =       -10.30952457 eV

  energy without entropy =      -10.30952457  energy(sigma->0) =      -10.30952457


--------------------------------------------------------------------------------------------------------




--------------------------------------- Iteration      1(   7)  ---------------------------------------


    POTLOK:  cpu time      0.0044: real time      0.0044
    SETDIJ:  cpu time      0.0011: real time      0.0011
     EDDAV:  cpu time      0.3283: real time      0.3305
       DOS:  cpu time      0.0002: real time      0.0002
    CHARGE:  cpu time      0.0041: real time      0.0041
    MIXING:  cpu time      0.0004: real time      0.0004
    --------------------------------------------
      LOOP:  cpu time      0.3385: real time      0.3407

 eigenvalue-minimisations  :  1968
 total energy-change (2. order) : 0.7019963E-01  (-0.1922533E-01)
 number of electron       8.0000000 magnetization 
 augmentation part       -0.4438508 magnetization 

 Broyden mixing:
  rms(total) = 0.20723E-01    rms(broyden)= 0.20723E-01
  rms(prec ) = 0.46975E-01
  weight for this iteration     100.00

 eigenvalues of (default mixing * dielectric matrix)
  average eigenvalue GAMMA=   2.0434
  1.7518  2.3351

 Free energy of the ion-electron system (eV)
  ---------------------------------------------------
  alpha Z        PSCENC =         3.29449589
  Ewald energy   TEWEN  =      -226.97511711
  -Hartree energ DENC   =       -15.95485450
  -exchange      EXHF   =         0.00000000
  -V(xc)+E(xc)   XCENC  =       -17.97236589
  PAW double counting   =       864.47779644     -829.55156904
  entropy T*S    EENTRO =        -0.00000000
  eigenvalues    EBANDS =         6.30977584
  atomic energy  EATOM  =       206.13251344
  Solvation  Ediel_sol  =         0.00000000
  ---------------------------------------------------
  free energy    TOTEN  =       -10.23932494 eV

  energy without entropy =      -10.23932494  energy(sigma->0) =      -10.23932494


--------------------------------------------------------------------------------------------------------




--------------------------------------- Iteration      1(   8)  ---------------------------------------


    POTLOK:  cpu time      0.0042: real time      0.0042
    SETDIJ:  cpu time      0.0011: real time      0.0011
     EDDAV:  cpu time      0.2337: real time      0.2353
       DOS:  cpu time      0.0002: real time      0.0002
    CHARGE:  cpu time      0.0046: real time      0.0046
    MIXING:  cpu time      0.0004: real time      0.0004
    --------------------------------------------
      LOOP:  cpu time      0.2442: real time      0.2459

 eigenvalue-minimisations  :  1536
 total energy-change (2. order) :-0.2117601E-02  (-0.2640629E-03)
 number of electron       8.0000000 magnetization 
 augmentation part       -0.4448282 magnetization 

 Broyden mixing:
  rms(total) = 0.68113E-02    rms(broyden)= 0.68113E-02
  rms(prec ) = 0.15989E-01
  weight for this iteration     100.00

 eigenvalues of (default mixing * dielectric matrix)
  average eigenvalue GAMMA=   2.1754
  1.4816  2.8578  2.1866

 Free energy of the ion-electron system (eV)
  ---------------------------------------------------
  alpha Z        PSCENC =         3.29449589
  Ewald energy   TEWEN  =      -226.97511711
  -Hartree energ DENC   =       -15.90295892
  -exchange      EXHF   =         0.00000000
  -V(xc)+E(xc)   XCENC  =       -17.97106816
  PAW double counting   =       872.48822148     -837.53343304
  entropy T*S    EENTRO =        -0.00000000
  eigenvalues    EBANDS =         6.22590389
  atomic energy  EATOM  =       206.13251344
  Solvation  Ediel_sol  =         0.00000000
  ---------------------------------------------------
  free energy    TOTEN  =       -10.24144254 eV

  energy without entropy =      -10.24144254  energy(sigma->0) =      -10.24144254


--------------------------------------------------------------------------------------------------------




--------------------------------------- Iteration      1(   9)  ---------------------------------------


    POTLOK:  cpu time      0.0044: real time      0.0044
    SETDIJ:  cpu time      0.0011: real time      0.0011
     EDDAV:  cpu time      0.3292: real time      0.3315
       DOS:  cpu time      0.0002: real time      0.0002
    CHARGE:  cpu time      0.0041: real time      0.0042
    MIXING:  cpu time      0.0003: real time      0.0003
    --------------------------------------------
      LOOP:  cpu time      0.3393: real time      0.3417

 eigenvalue-minimisations  :  1968
 total energy-change (2. order) :-0.5238742E-03  (-0.5251783E-04)
 number of electron       8.0000000 magnetization 
 augmentation part       -0.4449577 magnetization 

 Broyden mixing:
  rms(total) = 0.52423E-02    rms(broyden)= 0.52423E-02
  rms(prec ) = 0.63358E-02
  weight for this iteration     100.00

 eigenvalues of (default mixing * dielectric matrix)
  average eigenvalue GAMMA=   2.0566
  0.9620  2.8458  2.3893  2.0293

 Free energy of the ion-electron system (eV)
  ---------------------------------------------------
  alpha Z        PSCENC =         3.29449589
  Ewald energy   TEWEN  =      -226.97511711
  -Hartree energ DENC   =       -15.95960652
  -exchange      EXHF   =         0.00000000
  -V(xc)+E(xc)   XCENC  =       -17.96058974
  PAW double counting   =       874.01538267     -839.05468971
  entropy T*S    EENTRO =        -0.00000000
  eigenvalues    EBANDS =         6.26564467
  atomic energy  EATOM  =       206.13251344
  Solvation  Ediel_sol  =         0.00000000
  ---------------------------------------------------
  free energy    TOTEN  =       -10.24196641 eV

  energy without entropy =      -10.24196641  energy(sigma->0) =      -10.24196641


--------------------------------------------------------------------------------------------------------




--------------------------------------- Iteration      1(  10)  ---------------------------------------


    POTLOK:  cpu time      0.0041: real time      0.0041
    SETDIJ:  cpu time      0.0011: real time      0.0011
     EDDAV:  cpu time      0.2115: real time      0.2130
       DOS:  cpu time      0.0002: real time      0.0002
    CHARGE:  cpu time      0.0041: real time      0.0041
    MIXING:  cpu time      0.0003: real time      0.0003
    --------------------------------------------
      LOOP:  cpu time      0.2213: real time      0.2228

 eigenvalue-minimisations  :  1440
 total energy-change (2. order) :-0.3501879E-04  (-0.4104068E-05)
 number of electron       8.0000000 magnetization 
 augmentation part       -0.4449214 magnetization 

 Broyden mixing:
  rms(total) = 0.40637E-03    rms(broyden)= 0.40637E-03
  rms(prec ) = 0.81099E-03
  weight for this iteration     100.00

 eigenvalues of (default mixing * dielectric matrix)
  average eigenvalue GAMMA=   2.0726
  3.0648  0.9926  2.5126  1.8965  1.8965

 Free energy of the ion-electron system (eV)
  ---------------------------------------------------
  alpha Z        PSCENC =         3.29449589
  Ewald energy   TEWEN  =      -226.97511711
  -Hartree energ DENC   =       -15.96858522
  -exchange      EXHF   =         0.00000000
  -V(xc)+E(xc)   XCENC  =       -17.96052644
  PAW double counting   =       863.18293814     -828.22262727
  entropy T*S    EENTRO =        -0.00000000
  eigenvalues    EBANDS =         6.27490714
  atomic energy  EATOM  =       206.13251344
  Solvation  Ediel_sol  =         0.00000000
  ---------------------------------------------------
  free energy    TOTEN  =       -10.24200143 eV

  energy without entropy =      -10.24200143  energy(sigma->0) =      -10.24200143


--------------------------------------------------------------------------------------------------------




--------------------------------------- Iteration      1(  11)  ---------------------------------------


    POTLOK:  cpu time      0.0041: real time      0.0041
    SETDIJ:  cpu time      0.0011: real time      0.0011
     EDDAV:  cpu time      0.3899: real time      0.3925
       DOS:  cpu time      0.0002: real time      0.0002
    CHARGE:  cpu time      0.0041: real time      0.0042
    MIXING:  cpu time      0.0003: real time      0.0003
    --------------------------------------------
      LOOP:  cpu time      0.3997: real time      0.4024

 eigenvalue-minimisations  :  2112
 total energy-change (2. order) :-0.1210247E-05  (-0.1040770E-06)
 number of electron       8.0000000 magnetization 
 augmentation part       -0.4449169 magnetization 

 Broyden mixing:
  rms(total) = 0.14386E-03    rms(broyden)= 0.14386E-03
  rms(prec ) = 0.30717E-03
  weight for this iteration     100.00

 eigenvalues of (default mixing * dielectric matrix)
  average eigenvalue GAMMA=   2.1240
  3.2961  2.7209  2.4900  2.2028  1.0229  1.0113

 Free energy of the ion-electron system (eV)
  ---------------------------------------------------
  alpha Z        PSCENC =         3.29449589
  Ewald energy   TEWEN  =      -226.97511711
  -Hartree energ DENC   =       -15.96842471
  -exchange      EXHF   =         0.00000000
  -V(xc)+E(xc)   XCENC  =       -17.96074691
  PAW double counting   =       863.35320444     -828.39281805
  entropy T*S    EENTRO =        -0.00000000
  eigenvalues    EBANDS =         6.27489037
  atomic energy  EATOM  =       206.13251344
  Solvation  Ediel_sol  =         0.00000000
  ---------------------------------------------------
  free energy    TOTEN  =       -10.24200264 eV

  energy without entropy =      -10.24200264  energy(sigma->0) =      -10.24200264


--------------------------------------------------------------------------------------------------------




--------------------------------------- Iteration      1(  12)  ---------------------------------------


    POTLOK:  cpu time      0.0052: real time      0.0052
    SETDIJ:  cpu time      0.0011: real time      0.0011
     EDDAV:  cpu time      0.2406: real time      0.2423
       DOS:  cpu time      0.0002: real time      0.0002
    --------------------------------------------
      LOOP:  cpu time      0.2473: real time      0.2491

 eigenvalue-minimisations  :  1536
 total energy-change (2. order) :-0.3461117E-06  (-0.3529508E-07)
 number of electron       8.0000000 magnetization 
 augmentation part       -0.4449169 magnetization 

 Free energy of the ion-electron system (eV)
  ---------------------------------------------------
  alpha Z        PSCENC =         3.29449589
  Ewald energy   TEWEN  =      -226.97511711
  -Hartree energ DENC   =       -15.97012574
  -exchange      EXHF   =         0.00000000
  -V(xc)+E(xc)   XCENC  =       -17.96061375
  PAW double counting   =       863.71019534     -828.74991069
  entropy T*S    EENTRO =        -0.00000000
  eigenvalues    EBANDS =         6.27655963
  atomic energy  EATOM  =       206.13251344
  Solvation  Ediel_sol  =         0.00000000
  ---------------------------------------------------
  free energy    TOTEN  =       -10.24200299 eV

  energy without entropy =      -10.24200299  energy(sigma->0) =      -10.24200299


--------------------------------------------------------------------------------------------------------




 average (electrostatic) potential at core
  the test charge radii are     0.9892
  (the norm of the test charge is              1.0000)
       1 -83.3091       2 -83.3091
 
 
 
 E-fermi :   5.8094     XC(G=0):  -9.2608     alpha+bet :-11.7364

 val. band max:        5.7273966658   @ k =   0.0000   0.0000   0.0000
 cond. band min:       6.4479213741   @ k =   0.0000   0.3333   0.3333
 fundamental gap:      0.7205247083
 Fermi energy:         5.8093647716

 k-point     1 :       0.0000    0.0000    0.0000
  band No.  band energies     occupation 
      1      -6.1098      2.00000
      2       5.7274      2.00000
      3       5.7274      2.00000
      4       5.7274      2.00000
      5       8.2403      0.00000
      6       8.2403      0.00000
      7       8.2403      0.00000
      8       8.8747      0.00000
      9      13.3825      0.00000
     10      13.3825      0.00000
     11      13.6113      0.00000
     12      16.8521      0.00000
     13      16.8521      0.00000
     14      16.8521      0.00000
     15      21.0214      0.00000
     16      28.5813      0.00000
     17      28.5813      0.00000
     18      28.5813      0.00000
     19      29.6449      0.00000
     20      29.6449      0.00000
     21      31.1227      0.00000
     22      31.1227      0.00000
     23      31.1227      0.00000
     24      34.5878      0.00000
     25      34.5878      0.00000
     26      34.5878      0.00000
     27      40.2209      0.00000
     28      40.2209      0.00000
     29      40.2209      0.00000
     30      43.5800      0.00000
     31      43.9719      0.00000
     32      43.9719      0.00000
     33      45.8309      0.00000
     34      45.8309      0.00000
     35      47.3602      0.00000
     36      47.3602      0.00000
     37      47.3602      0.00000
     38      49.1086      0.00000
     39      49.1086      0.00000
     40      49.1086      0.00000
     41      49.6215      0.00000
     42      50.1375      0.00000
     43      50.1375      0.00000
     44      50.1375      0.00000
     45      50.1940      0.00000
     46      50.1940      0.00000
     47      50.1940      0.00000
     48      51.5598      0.00000

 k-point     2 :       0.3333    0.0000    0.0000
  band No.  band energies     occupation 
      1      -4.7565      2.00000
      2       0.4384      2.00000
      3       4.7347      2.00000
      4       4.7347      2.00000
      5       7.4048      0.00000
      6       9.1853      0.00000
      7       9.1853      0.00000
      8      13.4985      0.00000
      9      13.6369      0.00000
     10      13.6369      0.00000
     11      14.7068      0.00000
     12      19.1631      0.00000
     13      20.1617      0.00000
     14      20.1617      0.00000
     15      22.3090      0.00000
     16      23.1925      0.00000
     17      23.1925      0.00000
     18      27.4297      0.00000
     19      29.5008      0.00000
     20      29.5008      0.00000
     21      30.6805      0.00000
     22      32.1719      0.00000
     23      32.1719      0.00000
     24      34.7270      0.00000
     25      34.7270      0.00000
     26      35.2646      0.00000
     27      35.7398      0.00000
     28      38.1692      0.00000
     29      38.1692      0.00000
     30      39.2375      0.00000
     31      39.2375      0.00000
     32      41.0228      0.00000
     33      43.1273      0.00000
     34      43.2923      0.00000
     35      45.5604      0.00000
     36      45.5604      0.00000
     37      46.4084      0.00000
     38      46.4084      0.00000
     39      48.2935      0.00000
     40      49.0123      0.00000
     41      49.0123      0.00000
     42      49.1665      0.00000
     43      51.1431      0.00000
     44      53.5621      0.00000
     45      53.5621      0.00000
     46      55.7100      0.00000
     47      55.7100      0.00000
     48      57.5498      0.00000

 k-point     3 :       0.0000    0.3333    0.0000
  band No.  band energies     occupation 
      1      -4.7565      2.00000
      2       0.4384      2.00000
      3       4.7347      2.00000
      4       4.7347      2.00000
      5       7.4048      0.00000
      6       9.1853      0.00000
      7       9.1853      0.00000
      8      13.4985      0.00000
      9      13.6369      0.00000
     10      13.6369      0.00000
     11      14.7068      0.00000
     12      19.1631      0.00000
     13      20.1617      0.00000
     14      20.1617      0.00000
     15      22.3090      0.00000
     16      23.1925      0.00000
     17      23.1925      0.00000
     18      27.4297      0.00000
     19      29.5008      0.00000
     20      29.5008      0.00000
     21      30.6805      0.00000
     22      32.1719      0.00000
     23      32.1719      0.00000
     24      34.7270      0.00000
     25      34.7270      0.00000
     26      35.2646      0.00000
     27      35.7398      0.00000
     28      38.1692      0.00000
     29      38.1692      0.00000
     30      39.2375      0.00000
     31      39.2375      0.00000
     32      41.0228      0.00000
     33      43.1273      0.00000
     34      43.2923      0.00000
     35      45.5604      0.00000
     36      45.5604      0.00000
     37      46.4084      0.00000
     38      46.4084      0.00000
     39      48.2935      0.00000
     40      49.0123      0.00000
     41      49.0123      0.00000
     42      49.1665      0.00000
     43      51.1431      0.00000
     44      53.5621      0.00000
     45      53.5621      0.00000
     46      55.7100      0.00000
     47      55.7100      0.00000
     48      57.5498      0.00000

 k-point     4 :       0.0000    0.0000    0.3333
  band No.  band energies     occupation 
      1      -4.7565      2.00000
      2       0.4384      2.00000
      3       4.7347      2.00000
      4       4.7347      2.00000
      5       7.4048      0.00000
      6       9.1853      0.00000
      7       9.1853      0.00000
      8      13.4985      0.00000
      9      13.6369      0.00000
     10      13.6369      0.00000
     11      14.7068      0.00000
     12      19.1631      0.00000
     13      20.1617      0.00000
     14      20.1617      0.00000
     15      22.3090      0.00000
     16      23.1925      0.00000
     17      23.1925      0.00000
     18      27.4297      0.00000
     19      29.5008      0.00000
     20      29.5008      0.00000
     21      30.6805      0.00000
     22      32.1719      0.00000
     23      32.1719      0.00000
     24      34.7270      0.00000
     25      34.7270      0.00000
     26      35.2646      0.00000
     27      35.7398      0.00000
     28      38.1692      0.00000
     29      38.1692      0.00000
     30      39.2375      0.00000
     31      39.2375      0.00000
     32      41.0228      0.00000
     33      43.1273      0.00000
     34      43.2923      0.00000
     35      45.5604      0.00000
     36      45.5604      0.00000
     37      46.4084      0.00000
     38      46.4084      0.00000
     39      48.2935      0.00000
     40      49.0123      0.00000
     41      49.0123      0.00000
     42      49.1665      0.00000
     43      51.1431      0.00000
     44      53.5621      0.00000
     45      53.5621      0.00000
     46      55.7100      0.00000
     47      55.7100      0.00000
     48      57.5498      0.00000

 k-point     5 :       0.3333    0.3333    0.3333
  band No.  band energies     occupation 
      1      -4.7565      2.00000
      2       0.4384      2.00000
      3       4.7347      2.00000
      4       4.7347      2.00000
      5       7.4048      0.00000
      6       9.1853      0.00000
      7       9.1853      0.00000
      8      13.4985      0.00000
      9      13.6369      0.00000
     10      13.6369      0.00000
     11      14.7068      0.00000
     12      19.1631      0.00000
     13      20.1617      0.00000
     14      20.1617      0.00000
     15      22.3090      0.00000
     16      23.1925      0.00000
     17      23.1925      0.00000
     18      27.4297      0.00000
     19      29.5008      0.00000
     20      29.5008      0.00000
     21      30.6805      0.00000
     22      32.1719      0.00000
     23      32.1719      0.00000
     24      34.7270      0.00000
     25      34.7270      0.00000
     26      35.2646      0.00000
     27      35.7398      0.00000
     28      38.1692      0.00000
     29      38.1692      0.00000
     30      39.2375      0.00000
     31      39.2375      0.00000
     32      41.0228      0.00000
     33      43.1273      0.00000
     34      43.2923      0.00000
     35      45.5604      0.00000
     36      45.5604      0.00000
     37      46.4084      0.00000
     38      46.4084      0.00000
     39      48.2935      0.00000
     40      49.0123      0.00000
     41      49.0123      0.00000
     42      49.1665      0.00000
     43      51.1431      0.00000
     44      53.5621      0.00000
     45      53.5621      0.00000
     46      55.7100      0.00000
     47      55.7100      0.00000
     48      57.5498      0.00000

 k-point     6 :       0.3333    0.3333    0.0000
  band No.  band energies     occupation 
      1      -4.2361      2.00000
      2       0.7314      2.00000
      3       3.3378      2.00000
      4       3.3378      2.00000
      5       6.4479      0.00000
      6       7.7054      0.00000
      7      12.8827      0.00000
      8      12.8827      0.00000
      9      15.3467      0.00000
     10      15.4993      0.00000
     11      18.6641      0.00000
     12      19.0529      0.00000
     13      19.0529      0.00000
     14      20.7262      0.00000
     15      21.7277      0.00000
     16      21.9449      0.00000
     17      21.9449      0.00000
     18      24.5362      0.00000
     19      28.3983      0.00000
     20      30.0773      0.00000
     21      30.8933      0.00000
     22      30.8933      0.00000
     23      32.1023      0.00000
     24      33.0586      0.00000
     25      33.2528      0.00000
     26      34.2161      0.00000
     27      34.2161      0.00000
     28      40.3233      0.00000
     29      40.7578      0.00000
     30      40.9558      0.00000
     31      40.9558      0.00000
     32      41.7651      0.00000
     33      43.6386      0.00000
     34      43.6386      0.00000
     35      45.1285      0.00000
     36      45.3251      0.00000
     37      45.3251      0.00000
     38      46.8692      0.00000
     39      47.9903      0.00000
     40      48.7849      0.00000
     41      48.7849      0.00000
     42      48.8356      0.00000
     43      50.5876      0.00000
     44      53.4885      0.00000
     45      53.7538      0.00000
     46      53.7538      0.00000
     47      56.3393      0.00000
     48      57.8975      0.00000

 k-point     7 :       0.0000    0.3333    0.3333
  band No.  band energies     occupation 
      1      -4.2361      2.00000
      2       0.7314      2.00000
      3       3.3378      2.00000
      4       3.3378      2.00000
      5       6.4479      0.00000
      6       7.7054      0.00000
      7      12.8827      0.00000
      8      12.8827      0.00000
      9      15.3467      0.00000
     10      15.4993      0.00000
     11      18.6641      0.00000
     12      19.0529      0.00000
     13      19.0529      0.00000
     14      20.7262      0.00000
     15      21.7277      0.00000
     16      21.9449      0.00000
     17      21.9449      0.00000
     18      24.5362      0.00000
     19      28.3983      0.00000
     20      30.0773      0.00000
     21      30.8933      0.00000
     22      30.8933      0.00000
     23      32.1023      0.00000
     24      33.0586      0.00000
     25      33.2528      0.00000
     26      34.2161      0.00000
     27      34.2161      0.00000
     28      40.3233      0.00000
     29      40.7578      0.00000
     30      40.9558      0.00000
     31      40.9558      0.00000
     32      41.7651      0.00000
     33      43.6386      0.00000
     34      43.6386      0.00000
     35      45.1285      0.00000
     36      45.3251      0.00000
     37      45.3251      0.00000
     38      46.8692      0.00000
     39      47.9903      0.00000
     40      48.7849      0.00000
     41      48.7849      0.00000
     42      48.8356      0.00000
     43      50.5876      0.00000
     44      53.4885      0.00000
     45      53.7538      0.00000
     46      53.7538      0.00000
     47      56.3393      0.00000
     48      57.8975      0.00000

 k-point     8 :       0.3333    0.0000    0.3333
  band No.  band energies     occupation 
      1      -4.2361      2.00000
      2       0.7314      2.00000
      3       3.3378      2.00000
      4       3.3378      2.00000
      5       6.4479      0.00000
      6       7.7054      0.00000
      7      12.8827      0.00000
      8      12.8827      0.00000
      9      15.3467      0.00000
     10      15.4993      0.00000
     11      18.6641      0.00000
     12      19.0529      0.00000
     13      19.0529      0.00000
     14      20.7262      0.00000
     15      21.7277      0.00000
     16      21.9449      0.00000
     17      21.9449      0.00000
     18      24.5362      0.00000
     19      28.3983      0.00000
     20      30.0773      0.00000
     21      30.8933      0.00000
     22      30.8933      0.00000
     23      32.1023      0.00000
     24      33.0586      0.00000
     25      33.2528      0.00000
     26      34.2161      0.00000
     27      34.2161      0.00000
     28      40.3233      0.00000
     29      40.7578      0.00000
     30      40.9558      0.00000
     31      40.9558      0.00000
     32      41.7651      0.00000
     33      43.6386      0.00000
     34      43.6386      0.00000
     35      45.1285      0.00000
     36      45.3251      0.00000
     37      45.3251      0.00000
     38      46.8692      0.00000
     39      47.9903      0.00000
     40      48.7849      0.00000
     41      48.7849      0.00000
     42      48.8356      0.00000
     43      50.5876      0.00000
     44      53.4885      0.00000
     45      53.7538      0.00000
     46      53.7538      0.00000
     47      56.3393      0.00000
     48      57.8975      0.00000

 k-point     9 :      -0.3333    0.3333    0.0000
  band No.  band energies     occupation 
      1      -2.9037      2.00000
      2      -0.9983      2.00000
      3       1.3820      2.00000
      4       3.6387      2.00000
      5       7.2756      0.00000
      6      11.4849      0.00000
      7      12.0982      0.00000
      8      12.6872      0.00000
      9      13.0072      0.00000
     10      13.3396      0.00000
     11      19.9530      0.00000
     12      20.5107      0.00000
     13      21.1916      0.00000
     14      21.2728      0.00000
     15      22.1260      0.00000
     16      23.0773      0.00000
     17      23.8664      0.00000
     18      25.4929      0.00000
     19      27.7024      0.00000
     20      28.0148      0.00000
     21      28.4244      0.00000
     22      29.3757      0.00000
     23      31.9432      0.00000
     24      32.2669      0.00000
     25      32.8688      0.00000
     26      34.2516      0.00000
     27      34.6939      0.00000
     28      34.7215      0.00000
     29      39.8137      0.00000
     30      40.3753      0.00000
     31      40.4312      0.00000
     32      41.2768      0.00000
     33      42.2781      0.00000
     34      42.8991      0.00000
     35      43.8253      0.00000
     36      44.5110      0.00000
     37      47.3020      0.00000
     38      48.7096      0.00000
     39      48.9679      0.00000
     40      51.5360      0.00000
     41      52.1094      0.00000
     42      53.1325      0.00000
     43      53.3243      0.00000
     44      54.6288      0.00000
     45      55.1279      0.00000
     46      55.9914      0.00000
     47      56.1076      0.00000
     48      58.1158      0.00000

 k-point    10 :       0.0000   -0.3333    0.3333
  band No.  band energies     occupation 
      1      -2.9037      2.00000
      2      -0.9983      2.00000
      3       1.3820      2.00000
      4       3.6387      2.00000
      5       7.2756      0.00000
      6      11.4849      0.00000
      7      12.0982      0.00000
      8      12.6872      0.00000
      9      13.0072      0.00000
     10      13.3396      0.00000
     11      19.9530      0.00000
     12      20.5107      0.00000
     13      21.1916      0.00000
     14      21.2728      0.00000
     15      22.1260      0.00000
     16      23.0773      0.00000
     17      23.8664      0.00000
     18      25.4929      0.00000
     19      27.7024      0.00000
     20      28.0148      0.00000
     21      28.4244      0.00000
     22      29.3757      0.00000
     23      31.9432      0.00000
     24      32.2669      0.00000
     25      32.8688      0.00000
     26      34.2516      0.00000
     27      34.6939      0.00000
     28      34.7215      0.00000
     29      39.8137      0.00000
     30      40.3753      0.00000
     31      40.4312      0.00000
     32      41.2768      0.00000
     33      42.2781      0.00000
     34      42.8991      0.00000
     35      43.8253      0.00000
     36      44.5110      0.00000
     37      47.3020      0.00000
     38      48.7096      0.00000
     39      48.9679      0.00000
     40      51.5360      0.00000
     41      52.1094      0.00000
     42      53.1325      0.00000
     43      53.3243      0.00000
     44      54.6288      0.00000
     45      55.1279      0.00000
     46      55.9914      0.00000
     47      56.1076      0.00000
     48      58.1158      0.00000

 k-point    11 :       0.3333    0.0000   -0.3333
  band No.  band energies     occupation 
      1      -2.9037      2.00000
      2      -0.9983      2.00000
      3       1.3820      2.00000
      4       3.6387      2.00000
      5       7.2756      0.00000
      6      11.4849      0.00000
      7      12.0982      0.00000
      8      12.6872      0.00000
      9      13.0072      0.00000
     10      13.3396      0.00000
     11      19.9530      0.00000
     12      20.5107      0.00000
     13      21.1916      0.00000
     14      21.2728      0.00000
     15      22.1260      0.00000
     16      23.0773      0.00000
     17      23.8664      0.00000
     18      25.4929      0.00000
     19      27.7024      0.00000
     20      28.0148      0.00000
     21      28.4244      0.00000
     22      29.3757      0.00000
     23      31.9432      0.00000
     24      32.2669      0.00000
     25      32.8688      0.00000
     26      34.2516      0.00000
     27      34.6939      0.00000
     28      34.7215      0.00000
     29      39.8137      0.00000
     30      40.3753      0.00000
     31      40.4312      0.00000
     32      41.2768      0.00000
     33      42.2781      0.00000
     34      42.8991      0.00000
     35      43.8253      0.00000
     36      44.5110      0.00000
     37      47.3020      0.00000
     38      48.7096      0.00000
     39      48.9679      0.00000
     40      51.5360      0.00000
     41      52.1094      0.00000
     42      53.1325      0.00000
     43      53.3243      0.00000
     44      54.6288      0.00000
     45      55.1279      0.00000
     46      55.9914      0.00000
     47      56.1076      0.00000
     48      58.1158      0.00000

 k-point    12 :       0.3333    0.3333   -0.3333
  band No.  band energies     occupation 
      1      -2.9037      2.00000
      2      -0.9983      2.00000
      3       1.3820      2.00000
      4       3.6387      2.00000
      5       7.2756      0.00000
      6      11.4849      0.00000
      7      12.0982      0.00000
      8      12.6872      0.00000
      9      13.0072      0.00000
     10      13.3396      0.00000
     11      19.9530      0.00000
     12      20.5107      0.00000
     13      21.1916      0.00000
     14      21.2728      0.00000
     15      22.1260      0.00000
     16      23.0773      0.00000
     17      23.8664      0.00000
     18      25.4929      0.00000
     19      27.7024      0.00000
     20      28.0148      0.00000
     21      28.4244      0.00000
     22      29.3757      0.00000
     23      31.9432      0.00000
     24      32.2669      0.00000
     25      32.8688      0.00000
     26      34.2516      0.00000
     27      34.6939      0.00000
     28      34.7215      0.00000
     29      39.8137      0.00000
     30      40.3753      0.00000
     31      40.4312      0.00000
     32      41.2768      0.00000
     33      42.2781      0.00000
     34      42.8991      0.00000
     35      43.8253      0.00000
     36      44.5110      0.00000
     37      47.3020      0.00000
     38      48.7096      0.00000
     39      48.9679      0.00000
     40      51.5360      0.00000
     41      52.1094      0.00000
     42      53.1325      0.00000
     43      53.3243      0.00000
     44      54.6288      0.00000
     45      55.1279      0.00000
     46      55.9914      0.00000
     47      56.1076      0.00000
     48      58.1158      0.00000

 k-point    13 :      -0.3333    0.3333   -0.3333
  band No.  band energies     occupation 
      1      -2.9037      2.00000
      2      -0.9983      2.00000
      3       1.3820      2.00000
      4       3.6387      2.00000
      5       7.2756      0.00000
      6      11.4849      0.00000
      7      12.0982      0.00000
      8      12.6872      0.00000
      9      13.0072      0.00000
     10      13.3396      0.00000
     11      19.9530      0.00000
     12      20.5107      0.00000
     13      21.1916      0.00000
     14      21.2728      0.00000
     15      22.1260      0.00000
     16      23.0773      0.00000
     17      23.8664      0.00000
     18      25.4929      0.00000
     19      27.7024      0.00000
     20      28.0148      0.00000
     21      28.4244      0.00000
     22      29.3757      0.00000
     23      31.9432      0.00000
     24      32.2669      0.00000
     25      32.8688      0.00000
     26      34.2516      0.00000
     27      34.6939      0.00000
     28      34.7215      0.00000
     29      39.8137      0.00000
     30      40.3753      0.00000
     31      40.4312      0.00000
     32      41.2768      0.00000
     33      42.2781      0.00000
     34      42.8991      0.00000
     35      43.8253      0.00000
     36      44.5110      0.00000
     37      47.3020      0.00000
     38      48.7096      0.00000
     39      48.9679      0.00000
     40      51.5360      0.00000
     41      52.1094      0.00000
     42      53.1325      0.00000
     43      53.3243      0.00000
     44      54.6288      0.00000
     45      55.1279      0.00000
     46      55.9914      0.00000
     47      56.1076      0.00000
     48      58.1158      0.00000

 k-point    14 :       0.3333   -0.3333   -0.3333
  band No.  band energies     occupation 
      1      -2.9037      2.00000
      2      -0.9983      2.00000
      3       1.3820      2.00000
      4       3.6387      2.00000
      5       7.2756      0.00000
      6      11.4849      0.00000
      7      12.0982      0.00000
      8      12.6872      0.00000
      9      13.0072      0.00000
     10      13.3396      0.00000
     11      19.9530      0.00000
     12      20.5107      0.00000
     13      21.1916      0.00000
     14      21.2728      0.00000
     15      22.1260      0.00000
     16      23.0773      0.00000
     17      23.8664      0.00000
     18      25.4929      0.00000
     19      27.7024      0.00000
     20      28.0148      0.00000
     21      28.4244      0.00000
     22      29.3757      0.00000
     23      31.9432      0.00000
     24      32.2669      0.00000
     25      32.8688      0.00000
     26      34.2516      0.00000
     27      34.6939      0.00000
     28      34.7215      0.00000
     29      39.8137      0.00000
     30      40.3753      0.00000
     31      40.4312      0.00000
     32      41.2768      0.00000
     33      42.2781      0.00000
     34      42.8991      0.00000
     35      43.8253      0.00000
     36      44.5110      0.00000
     37      47.3020      0.00000
     38      48.7096      0.00000
     39      48.9679      0.00000
     40      51.5360      0.00000
     41      52.1094      0.00000
     42      53.1325      0.00000
     43      53.3243      0.00000
     44      54.6288      0.00000
     45      55.1279      0.00000
     46      55.9914      0.00000
     47      56.1076      0.00000
     48      58.1158      0.00000


--------------------------------------------------------------------------------------------------------


 soft charge-density along one line, spin component           1
         0         1         2         3         4         5         6         7         8         9
 total charge-density along one line
 
 pseudopotential strength for first ion, spin component:           1
 18.422  25.702   0.000   0.000   0.000   0.000   0.000   0.000
 25.702  35.863   0.000   0.000   0.000   0.000   0.000   0.000
  0.000   0.000   4.180  -0.000  -0.000   7.789  -0.000  -0.000
  0.000   0.000  -0.000   4.180  -0.000  -0.000   7.789  -0.000
  0.000   0.000  -0.000  -0.000   4.180  -0.000  -0.000   7.789
  0.000   0.000   7.789  -0.000  -0.000  14.524  -0.000  -0.000
  0.000   0.000  -0.000   7.789  -0.000  -0.000  14.524  -0.000
  0.000   0.000  -0.000  -0.000   7.789  -0.000  -0.000  14.524
 total augmentation occupancy for first ion, spin component:           1
  5.643  -2.119  -0.000  -0.000  -0.000   0.000   0.000   0.000
 -2.119   0.866   0.000   0.000   0.000  -0.000  -0.000  -0.000
 -0.000   0.000   2.982   0.000   0.000  -0.659  -0.000  -0.000
 -0.000   0.000   0.000   2.982   0.000  -0.000  -0.659  -0.000
 -0.000   0.000   0.000   0.000   2.982   0.000  -0.000  -0.659
  0.000  -0.000  -0.659  -0.000   0.000   0.156   0.000   0.000
  0.000  -0.000  -0.000  -0.659  -0.000   0.000   0.156  -0.000
  0.000  -0.000  -0.000  -0.000  -0.659   0.000  -0.000   0.156


------------------------ aborting loop because EDIFF is reached ----------------------------------------


 MLWF driver (Wannier functions)
 ===============================
 Calling wannier_setup of wannier90 in library mode
 SCDM mode
 Computing MMN (overlap matrix elements)
 Writing MMN to wannier90.mmn
 Writing EIG to wannier90.eig

 Information about cutoff-function
 ---------------------------------
 CUTOFF_TYPE  = erfc
 CUTOFF_MU    =  11.69 eV
 CUTOFF_SIGMA =   1.00 eV

 Writing AMN to wannier90.amn

 MMN -> overlap matrix elements
 AMM -> projections of Bloch states onto localized states
 UMN -> unitary matrix transforming from Bloch states to Wannier states

 Parameters of MLWF datastructure
 num_band =           48
 num_wann =            8

 Computiation of AMN
 proj = SCDM

 Transformation from AMN to UMN
 trafo = One-shot SVD method

------------------------ end of MLWF driver reached ----------------------------------------------------
    CHARGE:  cpu time      0.0048: real time      0.0048
    FORLOC:  cpu time      0.0002: real time      0.0003
    FORNL :  cpu time      0.0042: real time      0.0043
    STRESS:  cpu time      0.0357: real time      0.0360
    FORCOR:  cpu time      0.0041: real time      0.0045
    FORHAR:  cpu time      0.0009: real time      0.0012
    MIXING:  cpu time      0.0003: real time      0.0003
    OFIELD:  cpu time      0.0001: real time      0.0002

  FORCE on cell =-STRESS in cart. coord.  units (eV):
  Direction    XX          YY          ZZ          XY          YZ          ZX
  --------------------------------------------------------------------------------------
  Alpha Z     3.29450     3.29450     3.29450
  Ewald     -75.65841   -75.65841   -75.65841    -0.00000    -0.00000     0.00000
  Hartree     5.32336     5.32336     5.32336     0.00000     0.00000     0.00000
  E(xc)     -25.38068   -25.38068   -25.38068     0.00000     0.00000     0.00000
  Local     -29.94354   -29.94354   -29.94354     0.00001     0.00001     0.00001
  n-local    76.69146    76.69146    76.69146     0.00000    -0.00000     0.00000
  augment   -11.30746   -11.30746   -11.30746    -0.00001    -0.00001    -0.00001
  Kinetic    57.46141    57.46141    57.46141    -0.00000    -0.00000     0.00000
  Fock        0.00000     0.00000     0.00000     0.00000     0.00000     0.00000
  -------------------------------------------------------------------------------------
  Total       0.48063     0.48063     0.48063     0.00000     0.00000     0.00000
  in kB      18.84070    18.84070    18.84071     0.00000     0.00000     0.00001
  external pressure =       18.84 kB  Pullay stress =        0.00 kB


 VOLUME and BASIS-vectors are now :
 -----------------------------------------------------------------------------
  energy-cutoff  :      500.00
  volume of cell :       40.87
      direct lattice vectors                 reciprocal lattice vectors
     0.000000000  2.734000000  2.734000000    -0.182882224  0.182882224  0.182882224
     2.734000000  0.000000000  2.734000000     0.182882224 -0.182882224  0.182882224
     2.734000000  2.734000000  0.000000000     0.182882224  0.182882224 -0.182882224

  length of vectors
     3.866459880  3.866459880  3.866459880     0.316761304  0.316761304  0.316761304


 FORCES acting on ions
    electron-ion (+dipol)            ewald-force                    non-local-force                 convergence-correction
 -----------------------------------------------------------------------------------------------
   -.964E-07 0.441E-07 -.236E-06   -.669E-15 0.666E-15 -.136E-14   0.244E-06 0.254E-07 0.300E-06   -.331E-08 -.463E-07 0.229E-07
   -.382E-07 0.152E-06 0.573E-08   0.510E-15 -.453E-15 0.652E-15   -.150E-06 -.164E-06 -.115E-06   0.449E-07 -.195E-08 0.211E-07
 -----------------------------------------------------------------------------------------------
   -.135E-06 0.196E-06 -.230E-06   -.159E-15 0.212E-15 -.704E-15   0.941E-07 -.139E-06 0.185E-06   0.416E-07 -.482E-07 0.441E-07
 
 
 POSITION                                       TOTAL-FORCE (eV/Angst)
 -----------------------------------------------------------------------------------
      4.78450      4.78450      4.78450         0.000000      0.000000      0.000000
      0.68350      0.68350      0.68350        -0.000000     -0.000000     -0.000000
 -----------------------------------------------------------------------------------
    total drift:                                0.000000      0.000000     -0.000000


--------------------------------------------------------------------------------------------------------



  FREE ENERGIE OF THE ION-ELECTRON SYSTEM (eV)
  ---------------------------------------------------
  free  energy   TOTEN  =       -10.24200299 eV

  energy  without entropy=      -10.24200299  energy(sigma->0) =      -10.24200299
 


--------------------------------------------------------------------------------------------------------


    POTLOK:  cpu time      0.0061: real time      0.0061


--------------------------------------------------------------------------------------------------------


     LOOP+:  cpu time      7.1477: real time      7.2580
 
 electron-phonon calculation
 ===========================

General:
  elph_run =  T
  elph_driver = 2
  elph_dry_run =  F
  elph_nbands =     96
  elph_nedos =   5001
  elph_kspacing =    0.500
  encutlr =   50.000

Phonon:
  elph_ignore_imag_phonons =  F
  ifc_asr =  1
  ifc_lr =  1

Matrix elements:
                   v d r p q s
  elph_decompose =  T  T  T  T  F  F
  elph_lr =  1
  elph_writemels =  F

Performance:
  elph_wf_cache_prefill =  T
  elph_wf_cache_mb = 1000.000
  elph_wf_redistribute =  F
  elph_wf_redistribute_opt =    0
  elph_kpar =   -1
  elph_ncore =    1
  elph_useblas =  T
  elph_rotateprojectors =  F
  elph_wf_comm_opt =    0

Chemical potential:
  elph_ismear =   0
  elph_fermi_nedos =    501
  elph_selfen_temps =
       0.000
     100.000
     200.000
     300.000
     400.000
     500.000
  elph_selfen_carrier_den =
  elph_selfen_carrier_per_cell =
    .000E+00
  elph_selfen_mu =

Self-energy:
  elph_scattering_approx = 
  1 self-energy relaxation-time approximation (SERTA)
  elph_selfen_fan =  F
  elph_selfen_dw =  F
  elph_selfen_fans =  F
[...]
     1    12    62   68.567640    0.000000    0.000000    0.000000    0.000000
     1    12    63   69.496954    0.000000    0.000000    0.000000    0.000000
     1    12    64   71.099462    0.000000    0.000000    0.000000    0.000000
     1    12    65   71.521897    0.000000    0.000000    0.000000    0.000000
     1    12    66   71.653739    0.000000    0.000000    0.000000    0.000000
     1    12    67   73.412073    0.000000    0.000000    0.000000    0.000000
     1    12    68   73.754404    0.000000    0.000000    0.000000    0.000000
     1    12    69   75.121078    0.000000    0.000000    0.000000    0.000000
     1    12    70   75.588450    0.000000    0.000000    0.000000    0.000000
     1    12    71   76.011206    0.000000    0.000000    0.000000    0.000000
     1    12    72   76.588889    0.000000    0.000000    0.000000    0.000000
     1    12    73   76.777638    0.000000    0.000000    0.000000    0.000000
     1    12    74   78.018259    0.000000    0.000000    0.000000    0.000000
     1    12    75   78.785052    0.000000    0.000000    0.000000    0.000000
     1    12    76   78.987597    0.000000    0.000000    0.000000    0.000000
     1    12    77   79.443143    0.000000    0.000000    0.000000    0.000000
     1    12    78   79.575698    0.000000    0.000000    0.000000    0.000000
     1    12    79   79.809491    0.000000    0.000000    0.000000    0.000000
     1    12    80   79.931167    0.000000    0.000000    0.000000    0.000000
     1    12    81   82.094278    0.000000    0.000000    0.000000    0.000000
     1    12    82   82.995428    0.000000    0.000000    0.000000    0.000000
     1    12    83   83.336600    0.000000    0.000000    0.000000    0.000000
     1    12    84   85.534072    0.000000    0.000000    0.000000    0.000000
     1    12    85   85.900885    0.000000    0.000000    0.000000    0.000000
     1    12    86   86.284568    0.000000    0.000000    0.000000    0.000000
     1    12    87   87.441417    0.000000    0.000000    0.000000    0.000000
     1    12    88   87.559249    0.000000    0.000000    0.000000    0.000000
     1    12    89   87.712857    0.000000    0.000000    0.000000    0.000000
     1    12    90   89.050941    0.000000    0.000000    0.000000    0.000000
     1    12    91   90.041378    0.000000    0.000000    0.000000    0.000000
     1    12    92   90.841245    0.000000    0.000000    0.000000    0.000000
     1    12    93   91.175090    0.000000    0.000000    0.000000    0.000000
     1    12    94   92.448604    0.000000    0.000000    0.000000    0.000000
     1    12    95   93.249736    0.000000    0.000000    0.000000    0.000000
     1    12    96   93.369941    0.000000    0.000000    0.000000    0.000000
     1    13     1   -2.903656    0.000000    0.000000    0.000000    0.000000
     1    13     2   -0.998312    0.000000    0.000000    0.000000    0.000000
     1    13     3    1.381968    0.000000    0.000000    0.000000    0.000000
     1    13     4    3.638722    0.000000    0.000000    0.000000    0.000000
     1    13     5    7.275581    0.000000    0.000000    0.000000    0.000000
     1    13     6   11.484910    0.000000    0.000000    0.000000    0.000000
     1    13     7   12.098190    0.000000    0.000000    0.000000    0.000000
     1    13     8   12.687222    0.000000    0.000000    0.000000    0.000000
     1    13     9   13.007172    0.000000    0.000000    0.000000    0.000000
     1    13    10   13.339580    0.000000    0.000000    0.000000    0.000000
     1    13    11   19.953037    0.000000    0.000000    0.000000    0.000000
     1    13    12   20.510717    0.000000    0.000000    0.000000    0.000000
     1    13    13   21.191605    0.000000    0.000000    0.000000    0.000000
     1    13    14   21.272808    0.000000    0.000000    0.000000    0.000000
     1    13    15   22.125974    0.000000    0.000000    0.000000    0.000000
     1    13    16   23.077303    0.000000    0.000000    0.000000    0.000000
     1    13    17   23.866424    0.000000    0.000000    0.000000    0.000000
     1    13    18   25.492941    0.000000    0.000000    0.000000    0.000000
     1    13    19   27.702359    0.000000    0.000000    0.000000    0.000000
     1    13    20   28.014793    0.000000    0.000000    0.000000    0.000000
     1    13    21   28.424440    0.000000    0.000000    0.000000    0.000000
     1    13    22   29.375709    0.000000    0.000000    0.000000    0.000000
     1    13    23   31.943196    0.000000    0.000000    0.000000    0.000000
     1    13    24   32.266867    0.000000    0.000000    0.000000    0.000000
     1    13    25   32.868778    0.000000    0.000000    0.000000    0.000000
     1    13    26   34.251549    0.000000    0.000000    0.000000    0.000000
     1    13    27   34.693891    0.000000    0.000000    0.000000    0.000000
     1    13    28   34.721488    0.000000    0.000000    0.000000    0.000000
     1    13    29   39.813680    0.000000    0.000000    0.000000    0.000000
     1    13    30   40.375271    0.000000    0.000000    0.000000    0.000000
     1    13    31   40.431147    0.000000    0.000000    0.000000    0.000000
     1    13    32   41.276816    0.000000    0.000000    0.000000    0.000000
     1    13    33   42.278117    0.000000    0.000000    0.000000    0.000000
     1    13    34   42.899123    0.000000    0.000000    0.000000    0.000000
     1    13    35   43.825274    0.000000    0.000000    0.000000    0.000000
     1    13    36   44.510977    0.000000    0.000000    0.000000    0.000000
     1    13    37   47.301983    0.000000    0.000000    0.000000    0.000000
     1    13    38   48.709552    0.000000    0.000000    0.000000    0.000000
     1    13    39   48.967913    0.000000    0.000000    0.000000    0.000000
     1    13    40   51.536034    0.000000    0.000000    0.000000    0.000000
     1    13    41   52.109449    0.000000    0.000000    0.000000    0.000000
     1    13    42   53.132486    0.000000    0.000000    0.000000    0.000000
     1    13    43   53.324267    0.000000    0.000000    0.000000    0.000000
     1    13    44   54.628791    0.000000    0.000000    0.000000    0.000000
     1    13    45   55.127866    0.000000    0.000000    0.000000    0.000000
     1    13    46   55.991433    0.000000    0.000000    0.000000    0.000000
     1    13    47   56.107597    0.000000    0.000000    0.000000    0.000000
     1    13    48   58.115815    0.000000    0.000000    0.000000    0.000000
     1    13    49   58.416083    0.000000    0.000000    0.000000    0.000000
     1    13    50   59.064995    0.000000    0.000000    0.000000    0.000000
     1    13    51   59.351029    0.000000    0.000000    0.000000    0.000000
     1    13    52   60.249515    0.000000    0.000000    0.000000    0.000000
     1    13    53   60.489662    0.000000    0.000000    0.000000    0.000000
     1    13    54   61.898560    0.000000    0.000000    0.000000    0.000000
     1    13    55   62.763753    0.000000    0.000000    0.000000    0.000000
     1    13    56   63.688175    0.000000    0.000000    0.000000    0.000000
     1    13    57   65.489505    0.000000    0.000000    0.000000    0.000000
     1    13    58   65.660868    0.000000    0.000000    0.000000    0.000000
     1    13    59   66.148291    0.000000    0.000000    0.000000    0.000000
     1    13    60   66.913825    0.000000    0.000000    0.000000    0.000000
     1    13    61   67.217983    0.000000    0.000000    0.000000    0.000000
     1    13    62   68.567640    0.000000    0.000000    0.000000    0.000000
     1    13    63   69.496954    0.000000    0.000000    0.000000    0.000000
     1    13    64   71.099462    0.000000    0.000000    0.000000    0.000000
     1    13    65   71.521897    0.000000    0.000000    0.000000    0.000000
     1    13    66   71.653739    0.000000    0.000000    0.000000    0.000000
     1    13    67   73.412073    0.000000    0.000000    0.000000    0.000000
     1    13    68   73.754404    0.000000    0.000000    0.000000    0.000000
     1    13    69   75.121078    0.000000    0.000000    0.000000    0.000000
     1    13    70   75.588450    0.000000    0.000000    0.000000    0.000000
     1    13    71   76.011206    0.000000    0.000000    0.000000    0.000000
     1    13    72   76.588889    0.000000    0.000000    0.000000    0.000000
     1    13    73   76.777638    0.000000    0.000000    0.000000    0.000000
     1    13    74   78.018259    0.000000    0.000000    0.000000    0.000000
     1    13    75   78.785052    0.000000    0.000000    0.000000    0.000000
     1    13    76   78.987597    0.000000    0.000000    0.000000    0.000000
     1    13    77   79.443143    0.000000    0.000000    0.000000    0.000000
     1    13    78   79.575698    0.000000    0.000000    0.000000    0.000000
     1    13    79   79.809491    0.000000    0.000000    0.000000    0.000000
     1    13    80   79.931167    0.000000    0.000000    0.000000    0.000000
     1    13    81   82.094278    0.000000    0.000000    0.000000    0.000000
     1    13    82   82.995428    0.000000    0.000000    0.000000    0.000000
     1    13    83   83.336600    0.000000    0.000000    0.000000    0.000000
     1    13    84   85.534072    0.000000    0.000000    0.000000    0.000000
     1    13    85   85.900885    0.000000    0.000000    0.000000    0.000000
     1    13    86   86.284568    0.000000    0.000000    0.000000    0.000000
     1    13    87   87.441417    0.000000    0.000000    0.000000    0.000000
     1    13    88   87.559249    0.000000    0.000000    0.000000    0.000000
     1    13    89   87.712858    0.000000    0.000000    0.000000    0.000000
     1    13    90   89.050941    0.000000    0.000000    0.000000    0.000000
     1    13    91   90.041378    0.000000    0.000000    0.000000    0.000000
     1    13    92   90.841245    0.000000    0.000000    0.000000    0.000000
     1    13    93   91.175090    0.000000    0.000000    0.000000    0.000000
     1    13    94   92.448604    0.000000    0.000000    0.000000    0.000000
     1    13    95   93.249736    0.000000    0.000000    0.000000    0.000000
     1    13    96   93.369941    0.000000    0.000000    0.000000    0.000000
     1    14     1   -2.903656    0.000000    0.000000    0.000000    0.000000
     1    14     2   -0.998312    0.000000    0.000000    0.000000    0.000000
     1    14     3    1.381968    0.000000    0.000000    0.000000    0.000000
     1    14     4    3.638722    0.000000    0.000000    0.000000    0.000000
     1    14     5    7.275581    0.000000    0.000000    0.000000    0.000000
     1    14     6   11.484910    0.000000    0.000000    0.000000    0.000000
     1    14     7   12.098190    0.000000    0.000000    0.000000    0.000000
     1    14     8   12.687222    0.000000    0.000000    0.000000    0.000000
     1    14     9   13.007172    0.000000    0.000000    0.000000    0.000000
     1    14    10   13.339580    0.000000    0.000000    0.000000    0.000000
     1    14    11   19.953037    0.000000    0.000000    0.000000    0.000000
     1    14    12   20.510717    0.000000    0.000000    0.000000    0.000000
     1    14    13   21.191605    0.000000    0.000000    0.000000    0.000000
     1    14    14   21.272808    0.000000    0.000000    0.000000    0.000000
     1    14    15   22.125974    0.000000    0.000000    0.000000    0.000000
     1    14    16   23.077303    0.000000    0.000000    0.000000    0.000000
     1    14    17   23.866424    0.000000    0.000000    0.000000    0.000000
     1    14    18   25.492941    0.000000    0.000000    0.000000    0.000000
     1    14    19   27.702359    0.000000    0.000000    0.000000    0.000000
     1    14    20   28.014793    0.000000    0.000000    0.000000    0.000000
     1    14    21   28.424440    0.000000    0.000000    0.000000    0.000000
     1    14    22   29.375709    0.000000    0.000000    0.000000    0.000000
     1    14    23   31.943197    0.000000    0.000000    0.000000    0.000000
     1    14    24   32.266867    0.000000    0.000000    0.000000    0.000000
     1    14    25   32.868778    0.000000    0.000000    0.000000    0.000000
     1    14    26   34.251549    0.000000    0.000000    0.000000    0.000000
     1    14    27   34.693891    0.000000    0.000000    0.000000    0.000000
     1    14    28   34.721488    0.000000    0.000000    0.000000    0.000000
     1    14    29   39.813680    0.000000    0.000000    0.000000    0.000000
     1    14    30   40.375271    0.000000    0.000000    0.000000    0.000000
     1    14    31   40.431147    0.000000    0.000000    0.000000    0.000000
     1    14    32   41.276816    0.000000    0.000000    0.000000    0.000000
     1    14    33   42.278117    0.000000    0.000000    0.000000    0.000000
     1    14    34   42.899123    0.000000    0.000000    0.000000    0.000000
     1    14    35   43.825274    0.000000    0.000000    0.000000    0.000000
     1    14    36   44.510977    0.000000    0.000000    0.000000    0.000000
     1    14    37   47.301983    0.000000    0.000000    0.000000    0.000000
     1    14    38   48.709552    0.000000    0.000000    0.000000    0.000000
     1    14    39   48.967913    0.000000    0.000000    0.000000    0.000000
     1    14    40   51.536034    0.000000    0.000000    0.000000    0.000000
     1    14    41   52.109449    0.000000    0.000000    0.000000    0.000000
     1    14    42   53.132486    0.000000    0.000000    0.000000    0.000000
     1    14    43   53.324267    0.000000    0.000000    0.000000    0.000000
     1    14    44   54.628791    0.000000    0.000000    0.000000    0.000000
     1    14    45   55.127866    0.000000    0.000000    0.000000    0.000000
     1    14    46   55.991433    0.000000    0.000000    0.000000    0.000000
     1    14    47   56.107597    0.000000    0.000000    0.000000    0.000000
     1    14    48   58.115815    0.000000    0.000000    0.000000    0.000000
     1    14    49   58.416083    0.000000    0.000000    0.000000    0.000000
     1    14    50   59.064995    0.000000    0.000000    0.000000    0.000000
     1    14    51   59.351029    0.000000    0.000000    0.000000    0.000000
     1    14    52   60.249515    0.000000    0.000000    0.000000    0.000000
     1    14    53   60.489662    0.000000    0.000000    0.000000    0.000000
     1    14    54   61.898560    0.000000    0.000000    0.000000    0.000000
     1    14    55   62.763753    0.000000    0.000000    0.000000    0.000000
     1    14    56   63.688175    0.000000    0.000000    0.000000    0.000000
     1    14    57   65.489505    0.000000    0.000000    0.000000    0.000000
     1    14    58   65.660868    0.000000    0.000000    0.000000    0.000000
     1    14    59   66.148292    0.000000    0.000000    0.000000    0.000000
     1    14    60   66.913825    0.000000    0.000000    0.000000    0.000000
     1    14    61   67.217983    0.000000    0.000000    0.000000    0.000000
     1    14    62   68.567640    0.000000    0.000000    0.000000    0.000000
     1    14    63   69.496954    0.000000    0.000000    0.000000    0.000000
     1    14    64   71.099462    0.000000    0.000000    0.000000    0.000000
     1    14    65   71.521897    0.000000    0.000000    0.000000    0.000000
     1    14    66   71.653739    0.000000    0.000000    0.000000    0.000000
     1    14    67   73.412073    0.000000    0.000000    0.000000    0.000000
     1    14    68   73.754404    0.000000    0.000000    0.000000    0.000000
     1    14    69   75.121078    0.000000    0.000000    0.000000    0.000000
     1    14    70   75.588450    0.000000    0.000000    0.000000    0.000000
     1    14    71   76.011206    0.000000    0.000000    0.000000    0.000000
     1    14    72   76.588889    0.000000    0.000000    0.000000    0.000000
     1    14    73   76.777638    0.000000    0.000000    0.000000    0.000000
     1    14    74   78.018259    0.000000    0.000000    0.000000    0.000000
     1    14    75   78.785052    0.000000    0.000000    0.000000    0.000000
     1    14    76   78.987597    0.000000    0.000000    0.000000    0.000000
     1    14    77   79.443143    0.000000    0.000000    0.000000    0.000000
     1    14    78   79.575698    0.000000    0.000000    0.000000    0.000000
     1    14    79   79.809491    0.000000    0.000000    0.000000    0.000000
     1    14    80   79.931167    0.000000    0.000000    0.000000    0.000000
     1    14    81   82.094278    0.000000    0.000000    0.000000    0.000000
     1    14    82   82.995428    0.000000    0.000000    0.000000    0.000000
     1    14    83   83.336600    0.000000    0.000000    0.000000    0.000000
     1    14    84   85.534072    0.000000    0.000000    0.000000    0.000000
     1    14    85   85.900885    0.000000    0.000000    0.000000    0.000000
     1    14    86   86.284568    0.000000    0.000000    0.000000    0.000000
     1    14    87   87.441417    0.000000    0.000000    0.000000    0.000000
     1    14    88   87.559249    0.000000    0.000000    0.000000    0.000000
     1    14    89   87.712857    0.000000    0.000000    0.000000    0.000000
     1    14    90   89.050941    0.000000    0.000000    0.000000    0.000000
     1    14    91   90.041378    0.000000    0.000000    0.000000    0.000000
     1    14    92   90.841245    0.000000    0.000000    0.000000    0.000000
     1    14    93   91.175090    0.000000    0.000000    0.000000    0.000000
     1    14    94   92.448604    0.000000    0.000000    0.000000    0.000000
     1    14    95   93.249736    0.000000    0.000000    0.000000    0.000000
     1    14    96   93.369941    0.000000    0.000000    0.000000    0.000000
 
 
------------------------ end of electron-phonon driver reached -----------------------------------------
 
    4ORBIT:  cpu time      0.0000: real time      0.0000

 total amount of memory used by VASP MPI-rank0    32721. kBytes
=======================================================================

   base                                    :      30000. kBytes
   nonl-proj                               :        979. kBytes
   fftplans                                :        292. kBytes
   grid                                    :       1198. kBytes
   one-center                              :          6. kBytes
   wavefun                                 :        247. kBytes
   elph_w_dense                            :          0. kBytes
   dproj                                   :          0. kBytes
   elph_accumulator_selfen                 :         -1. kBytes
   ifc_lattice_atoms                       :          0. kBytes
   elph_phonon_freqs                       :          0. kBytes
   pot_grid                                :          0. kBytes
   pot_dvdu                                :          0. kBytes
   pot_lattice_points                      :          0. kBytes
   elph_cache                              :          0. kBytes
   elph_rwavefun                           :          0. kBytes
   wf_cache                                :          0. kBytes
 
  
  
 General timing and accounting informations for this job:
 ========================================================
  
                  Total CPU time used (sec):       29.832
                            User time (sec):       23.678
                          System time (sec):        6.153
                         Elapsed time (sec):       31.312
  
                   Maximum memory used (kb):      831788.
                   Average memory used (kb):          N/A
  
                          Minor page faults:       175308
                          Major page faults:         6227
                 Voluntary context switches:        15295
